
Host: d4d9595ec2f4

Timers On : Sat Mar 22 14:54:22 2025
Timers Off: Sat Mar 22 14:54:24 2025

Wall Time:        1.95 seconds

                                                       Time (seconds)
Module                                       User      System        Wall        Calls
DFH: sparsity prep                  :      0.000u      0.000s      0.012w      1 calls
Libint2ERI::Libint2ERI              :      0.000u      0.017s      0.012w      3 calls
DFH: initialize()                   :      0.017u      0.017s      0.026w      1 calls
DFH: AO Construction                :      0.000u      0.000s      0.002w      1 calls
DFH: AO-Met. Contraction            :      0.000u      0.000s      0.000w      1 calls
HF: Form core H                     :      0.000u      0.000s      0.002w      1 calls
HF: Form S/X                        :      0.000u      0.000s      0.000w      1 calls
HF: Guess                           :      0.017u      0.000s      0.025w      1 calls
SAD Guess                           :      0.017u      0.000s      0.023w      1 calls
HF: Form G                          :      0.000u      0.000s      0.002w      3 calls
JK: D                               :      0.000u      0.000s      0.000w      3 calls
JK: USO2AO                          :      0.000u      0.000s      0.000w      3 calls
JK: JK                              :      0.000u      0.000s      0.001w      3 calls
DFH: compute_JK()                   :      0.000u      0.000s      0.001w      3 calls
DFH: Grabbing AOs                   :      0.000u      0.000s      0.000w      3 calls
DFH: compute_J                      :      0.000u      0.000s      0.000w      3 calls
DFH: compute_K                      :      0.000u      0.000s      0.001w      3 calls
JK: AO2USO                          :      0.000u      0.000s      0.000w      3 calls
HF: Form F                          :      0.000u      0.000s      0.000w      3 calls
HF: Form D                          :      0.000u      0.000s      0.000w      3 calls
HF: DIIS                            :      0.017u      0.000s      0.008w      2 calls
HF: Form C                          :      0.000u      0.000s      0.001w      2 calls

--------------------------------------------------------------------------------------
DFH: sparsity prep                  :      0.000u      0.000s      0.012w      1 calls
| Libint2ERI::Libint2ERI            :      0.000u      0.000s      0.010w      1 calls
DFH: initialize()                   :      0.017u      0.017s      0.026w      1 calls
| Libint2ERI::Libint2ERI            :      0.000u      0.017s      0.001w      2 calls
| DFH: AO Construction              :      0.000u      0.000s      0.002w      1 calls
| DFH: AO-Met. Contraction          :      0.000u      0.000s      0.000w      1 calls
HF: Form core H                     :      0.000u      0.000s      0.002w      1 calls
HF: Form S/X                        :      0.000u      0.000s      0.000w      1 calls
HF: Guess                           :      0.017u      0.000s      0.025w      1 calls
| SAD Guess                         :      0.017u      0.000s      0.023w      1 calls
HF: Form G                          :      0.000u      0.000s      0.002w      3 calls
| JK: D                             :      0.000u      0.000s      0.000w      3 calls
| JK: USO2AO                        :      0.000u      0.000s      0.000w      3 calls
| JK: JK                            :      0.000u      0.000s      0.001w      3 calls
| | DFH: compute_JK()               :      0.000u      0.000s      0.001w      3 calls
| | | DFH: Grabbing AOs             :      0.000u      0.000s      0.000w      3 calls
| | | DFH: compute_J                :      0.000u      0.000s      0.000w      3 calls
| | | DFH: compute_K                :      0.000u      0.000s      0.001w      3 calls
| JK: AO2USO                        :      0.000u      0.000s      0.000w      3 calls
HF: Form F                          :      0.000u      0.000s      0.000w      3 calls
HF: Form D                          :      0.000u      0.000s      0.000w      3 calls
HF: DIIS                            :      0.017u      0.000s      0.008w      2 calls
HF: Form C                          :      0.000u      0.000s      0.001w      2 calls

**************************************************************************************

Host: 3785902fefb8

Timers On : Sat Mar 22 14:56:20 2025
Timers Off: Sat Mar 22 14:56:21 2025

Wall Time:        1.15 seconds

                                                       Time (seconds)
Module                                       User      System        Wall        Calls
DFH: sparsity prep                  :      0.000u      0.000s      0.002w      1 calls
Libint2ERI::Libint2ERI              :      0.000u      0.000s      0.002w      3 calls
DFH: initialize()                   :      0.017u      0.000s      0.014w      1 calls
DFH: AO Construction                :      0.000u      0.000s      0.000w      1 calls
DFH: AO-Met. Contraction            :      0.000u      0.000s      0.000w      1 calls
HF: Form core H                     :      0.000u      0.000s      0.001w      1 calls
HF: Form S/X                        :      0.000u      0.000s      0.000w      1 calls
HF: Guess                           :      0.033u      0.017s      0.017w      1 calls
SAD Guess                           :      0.033u      0.017s      0.015w      1 calls
HF: Form G                          :      0.000u      0.000s      0.000w      3 calls
JK: D                               :      0.000u      0.000s      0.000w      3 calls
JK: USO2AO                          :      0.000u      0.000s      0.000w      3 calls
JK: JK                              :      0.000u      0.000s      0.000w      3 calls
DFH: compute_JK()                   :      0.000u      0.000s      0.000w      3 calls
DFH: Grabbing AOs                   :      0.000u      0.000s      0.000w      3 calls
DFH: compute_J                      :      0.000u      0.000s      0.000w      3 calls
DFH: compute_K                      :      0.000u      0.000s      0.000w      3 calls
JK: AO2USO                          :      0.000u      0.000s      0.000w      3 calls
HF: Form F                          :      0.000u      0.000s      0.000w      3 calls
HF: Form D                          :      0.000u      0.000s      0.000w      3 calls
HF: DIIS                            :      0.017u      0.000s      0.008w      2 calls
HF: Form C                          :      0.000u      0.000s      0.001w      2 calls

--------------------------------------------------------------------------------------
DFH: sparsity prep                  :      0.000u      0.000s      0.002w      1 calls
| Libint2ERI::Libint2ERI            :      0.000u      0.000s      0.001w      1 calls
DFH: initialize()                   :      0.017u      0.000s      0.014w      1 calls
| Libint2ERI::Libint2ERI            :      0.000u      0.000s      0.001w      2 calls
| DFH: AO Construction              :      0.000u      0.000s      0.000w      1 calls
| DFH: AO-Met. Contraction          :      0.000u      0.000s      0.000w      1 calls
HF: Form core H                     :      0.000u      0.000s      0.001w      1 calls
HF: Form S/X                        :      0.000u      0.000s      0.000w      1 calls
HF: Guess                           :      0.033u      0.017s      0.017w      1 calls
| SAD Guess                         :      0.033u      0.017s      0.015w      1 calls
HF: Form G                          :      0.000u      0.000s      0.000w      3 calls
| JK: D                             :      0.000u      0.000s      0.000w      3 calls
| JK: USO2AO                        :      0.000u      0.000s      0.000w      3 calls
| JK: JK                            :      0.000u      0.000s      0.000w      3 calls
| | DFH: compute_JK()               :      0.000u      0.000s      0.000w      3 calls
| | | DFH: Grabbing AOs             :      0.000u      0.000s      0.000w      3 calls
| | | DFH: compute_J                :      0.000u      0.000s      0.000w      3 calls
| | | DFH: compute_K                :      0.000u      0.000s      0.000w      3 calls
| JK: AO2USO                        :      0.000u      0.000s      0.000w      3 calls
HF: Form F                          :      0.000u      0.000s      0.000w      3 calls
HF: Form D                          :      0.000u      0.000s      0.000w      3 calls
HF: DIIS                            :      0.017u      0.000s      0.008w      2 calls
HF: Form C                          :      0.000u      0.000s      0.001w      2 calls

**************************************************************************************
